27
Lattice="50.0 0.0 0.0 0.0 50.0 0.0 0.0 0.0 50.0" Properties=species:S:1:pos:R:3:forces:R:3 energy=-17660.51813537476 dihedrals="243.4 81.16 288.05" pbc="F F F"
C        0.73019137       0.76482276       1.28823508      -1.20381517       0.45256946      -0.35085831
C       -0.52053694       0.94200817       0.70986852       0.01692043      -0.07739121      -0.66064138
C        0.91793063       1.39606783       2.49224026       2.40469154       0.32540535       2.80798862
H        1.49339466       0.19112873       0.77299670       0.12294602       0.08468164       0.06341800
C       -1.51926566       1.68596300       1.37973115       1.01849897       0.14505060       0.92622588
O       -0.77491181       0.48764438      -0.58019006      -0.19310991      -1.04584345       0.87876618
N       -2.74005403       1.86798066       0.81984726       0.32461803      -0.42694228      -0.41384030
N       -1.27005232       2.24189663       2.58991940      -1.66857900       0.23138409      -0.76367904
H       -2.95278342       1.28301333       0.02320978      -0.30704690       0.42313795       0.06855307
H       -3.37564074       2.51963660       1.23605157      -0.28043078      -0.06459318       0.04715195
C       -0.09098249       2.11670435       3.15085150       0.64061895      -0.18522979       0.10971529
H        0.01750433       2.60256629       4.17658624       0.17546445      -0.73020786      -1.49220281
H        1.90896821       1.32422748       3.02306408      -0.97647128      -0.02834861      -0.66483144
C       -0.79362895      -0.97086539      -0.69449909       1.36903922       0.68111301      -2.52953268
C       -2.06162769      -1.57420089      -0.28105602      -2.30208396      -0.96102985       1.07186178
H        0.14055564      -1.43252073      -0.26223068      -0.91642744       0.49438651      -0.18209141
H       -0.77641361      -1.07808624      -1.82059137       0.50370002      -0.15340156       1.07201440
C       -3.03889340      -2.04536573      -1.18086109       1.95100592       0.44526206      -2.17101848
C       -2.47702301      -1.64811429       1.04972969       2.25513119       0.79820131       0.13714474
C       -4.30443131      -2.40541830      -0.85225431      -1.78069331      -0.22692542       0.07190589
H       -2.80047692      -2.18437310      -2.25294933       0.23575431       0.51202209       0.46943345
C       -4.68809668      -2.36163303       0.48934701      -2.15537526      -1.26714111      -1.15843489
H       -5.01687143      -2.65001084      -1.67154825       0.51739097      -0.08984392       0.78086227
C       -3.74424299      -2.01270135       1.39921004      -0.76300228      -0.14712520       2.81750025
H       -5.71576548      -2.73969750       0.77321369       1.23569196       0.74928124      -0.13487784
H       -4.01612450      -2.03227060       2.47427202       0.25352157       0.01644798      -0.63130184
H       -1.73277346      -1.40572402       1.82585976      -0.47795827       0.04508016      -0.16923135
27
Lattice="50.0 0.0 0.0 0.0 50.0 0.0 0.0 0.0 50.0" Properties=species:S:1:pos:R:3:forces:R:3 energy=-17660.35864797885 dihedrals="167.62 299.29 311.47" pbc="F F F"
C       -3.08113693       1.65673376      -1.86057297      -1.65138707       0.09358657      -0.35383184
C       -2.02814065       1.99307161      -1.06580841      -0.35366115       0.62226858      -0.32613532
C       -4.17410554       2.56999915      -1.95531594       0.95887625       0.87343758      -0.38568324
H       -3.28643500       0.73493382      -2.40823830       0.81096240      -0.18569040       0.36916120
C       -2.06682016       3.30495788      -0.49370306       1.46251438       0.47559653       1.53134101
O       -0.89846221       1.31307220      -0.78792470       0.97014907      -0.94689377       0.66031288
N       -1.04730370       3.63123736       0.41486229       1.52204865      -4.21488423      -1.16430684
N       -2.99644124       4.23133331      -0.65978550      -1.45127877      -0.97986408      -1.11862983
H       -0.15899814       3.02850770       0.58205281      -2.67668190       1.66171862      -0.79782400
H       -1.08239737       4.53041095       0.74195909       0.10819417       2.60848261       1.02394125
C       -4.09124561       3.84648569      -1.43233571       1.04035494      -0.44673282       1.52518572
H       -4.95780279       4.52440334      -1.42777482       0.58226996      -0.04376430      -0.30921394
H       -4.96600128       2.32453343      -2.63019916      -0.71059172      -0.24679088      -0.13772512
C       -0.80712313      -0.09645231      -1.05523822      -0.11402046       0.80583514      -0.24382500
C       -1.80486884      -0.94692588      -0.31122724       1.61868582       1.01026264      -1.28774210
H        0.20234717      -0.42463435      -0.79417037       0.14545726       0.47659558       0.30620227
H       -0.85136888      -0.20887170      -2.13235572      -0.41000479      -0.35088174      -0.49601006
C       -2.40620771      -1.94121610      -0.99218283      -2.04334489      -2.24024790      -2.17484906
C       -1.96218657      -0.76396306       1.03826295      -0.20107256       1.46474436       0.74096676
C       -3.34494495      -2.79433240      -0.34638452       0.20735248      -0.24535282      -0.46898247
H       -2.30756624      -2.03906810      -2.12072539       0.17987950       0.13004281       1.49285262
C       -3.56005942      -2.57760616       1.00268058      -0.21274531       0.87688606       1.13916125
H       -3.88960508      -3.61774842      -0.90277005       0.66554284       1.19612305       0.66891005
C       -2.85301394      -1.54234472       1.72024802      -0.77055913      -1.76797715      -0.77640950
H       -4.38676334      -3.08218182       1.52617590       0.58796432      -0.14299185      -0.14951907
H       -2.97841578      -1.44122583       2.78391189      -0.32586686       0.16999341       0.33889191
H       -1.51926206       0.16398425       1.43140641       0.06096260      -0.65350159       0.39376048
27
Lattice="50.0 0.0 0.0 0.0 50.0 0.0 0.0 0.0 50.0" Properties=species:S:1:pos:R:3:forces:R:3 energy=-17660.66095384649 dihedrals="190.3 276.91 310.38" pbc="F F F"
C       -3.04300261       1.99766879      -1.71075468       1.76078682      -2.08605396       2.07547048
C       -1.96936172       2.04768720      -0.75734944      -1.18857772       0.29668297      -1.60384667
C       -3.90212578       3.05307561      -1.90955312       0.06660089       1.12470707      -0.02687995
H       -3.26618530       1.00484386      -2.09387589      -0.03935487       0.11109910      -0.50116694
C       -1.77153781       3.30881291      -0.16328381       0.10041322       0.84927878      -0.21323518
O       -1.00504595       1.08183847      -0.47093901      -0.35773151       1.31940887       0.35690570
N       -0.66305976       3.51728189       0.58540276       0.81452501      -1.38829551       0.30834665
N       -2.57182595       4.36568791      -0.36612832      -0.50908765      -0.29833737      -0.25314299
H        0.00694049       2.75976931       0.55723916       0.03420852       0.30688961       0.28162558
H       -0.41530856       4.37672022       1.02792922      -0.26241477       0.43518121      -0.08415739
C       -3.60789638       4.23219258      -1.19631249      -0.95720640       0.35014155      -0.66339114
H       -4.26668160       5.13488671      -1.34460369       0.79553990      -0.87374023       0.29168734
H       -4.70232076       2.96167420      -2.66129563       0.26109909       0.25375449       0.58663430
C       -0.98847726      -0.12764681      -1.17510587       0.89844704      -0.92279908       0.49638747
C       -1.95599110      -1.11235433      -0.59775676      -0.28584362      -0.39134414       1.87110684
H        0.07975630      -0.52638712      -1.11889299      -1.28330667       0.62563425      -0.15006664
H       -1.27945769       0.05495852      -2.17828782       0.12189242       0.14351696      -1.54419976
C       -2.94931365      -1.75980680      -1.29910403      -0.68986805      -0.13953918      -1.45372048
C       -1.93895329      -1.34779136       0.78272718      -0.50235434      -0.48507536       0.46258432
C       -3.93380994      -2.54720873      -0.70838250      -0.48787789      -0.00393744       0.80179668
H       -3.01296029      -1.59229304      -2.37011354       0.06713037      -0.09512468      -0.26761867
C       -3.96065037      -2.65601700       0.68194731      -1.69881039      -0.97724542       0.28592850
H       -4.74561535      -3.05608364      -1.23849642       0.40584644       0.40018138      -0.36184159
C       -2.93972430      -2.11293649       1.42223796       1.54418569       0.63986322      -0.57143181
H       -4.84337289      -3.15306130       1.20828556       1.40443408       0.42276546      -0.82906097
H       -2.82193724      -2.35322829       2.46124069      -0.19919652       0.22967968       0.62074116
H       -1.15716746      -0.91675155       1.39374952       0.18652092       0.15270776       0.08454514
27
Lattice="50.0 0.0 0.0 0.0 50.0 0.0 0.0 0.0 50.0" Properties=species:S:1:pos:R:3:forces:R:3 energy=-17660.31232572948 dihedrals="179.47 291.89 327.37" pbc="F F F"
C       -2.90866030       1.60623876      -1.87408334       0.69519524      -1.36738323      -0.43210968
C       -1.94221074       2.01212391      -1.00360644       1.27892490      -0.20093075       0.39642865
C       -3.86696926       2.52445174      -2.30498915      -0.70110276      -0.68429818      -0.59013218
H       -2.82993532       0.59181319      -2.30556375      -0.43401773       0.49934800       0.38844377
C       -1.86714823       3.38563339      -0.57461639      -0.45494233      -1.66565698      -0.06461233
O       -0.87577292       1.20483256      -0.53244188      -1.49834392       1.69254821      -0.45201439
N       -0.86500235       3.64889545       0.33289076      -0.42382363      -0.90996862      -0.43224781
N       -2.76167742       4.25605597      -1.00707970      -0.29292023      -0.31731231      -0.32596351
H       -0.18832979       2.86883569       0.42238100      -0.45006778       1.34975548      -0.04874462
H       -0.61053915       4.60868023       0.39929358       0.56033223       0.50041408       0.26158301
C       -3.75176582       3.78927645      -1.85203272       1.59508318       1.60337187       1.06205153
H       -4.36987773       4.57230889      -2.22922238      -0.72472097       0.49950446      -0.10029697
H       -4.67893396       2.25429556      -2.99443905       0.43977114       0.01948598       0.25925543
C       -0.86823760      -0.13509457      -0.88436592       0.98495362      -1.93893198      -0.41593300
C       -1.99325598      -0.97987639      -0.25091149      -0.47170897      -0.00422193      -1.11357893
H        0.05298492      -0.48527526      -0.33834595      -0.47420065       0.05152843      -1.04184507
H       -0.74059573      -0.27745790      -2.01829237      -0.23232218       0.06436512       1.43732670
C       -2.63949668      -2.11968113      -0.85511918       1.60578817       1.78493786       1.07638969
C       -2.36172465      -0.56362000       0.99971976       0.68305495       0.54888792       1.00355406
C       -3.54097437      -2.85638691      -0.09376232      -0.77827244      -0.98306026       0.94025110
H       -2.23018792      -2.32065693      -1.85883404      -0.92929376      -0.55268731       0.25762695
C       -3.78890224      -2.52228714       1.33357123       0.33082468       0.78891573      -3.33961395
H       -4.03997954      -3.71623262      -0.64264184       0.50915167       0.91480521       1.17175120
C       -3.22881903      -1.32426890       1.76185996      -0.82475254      -0.97442390       2.07710182
H       -4.50412794      -2.99790805       2.00584606       0.18814771      -0.44944757      -0.51692430
H       -3.45177583      -1.07392081       2.83228050       0.32312661       0.20387231      -1.05895214
H       -1.85559292       0.30952243       1.46081238      -0.50386421      -0.47341767      -0.39879503
27
Lattice="50.0 0.0 0.0 0.0 50.0 0.0 0.0 0.0 50.0" Properties=species:S:1:pos:R:3:forces:R:3 energy=-17658.708310913225 dihedrals="327.31 125.99 38.29" pbc="F F F"
C       -3.32043034       2.20817351      -0.45581274       1.40096610       0.94030017      -1.46250508
C       -2.38349397       1.20080568      -0.27042700      -3.63136108      -2.94486438       2.02244139
C       -3.16151746       3.12817460      -1.47980968       0.67305457      -2.29971690       1.42237769
H       -4.16891462       2.31825222       0.12680889      -1.37238679      -0.18866020       1.82146955
C       -1.45454471       0.87762967      -1.20898855       3.47807904       0.78221250       0.41929156
O       -2.76868455       0.35675491       0.80590321       0.54672021       1.39076893      -0.42680364
N       -0.42302787      -0.16751337      -1.04077626      -2.70981333       1.36322883       1.74827239
N       -1.22689042       1.84543164      -2.12977398       0.38175887      -2.44867253      -0.57160853
H        0.30332749       0.15829398      -1.63276142       1.26358365       0.06991297      -0.40141404
H       -0.14939202      -0.21662360      -0.00905387      -0.29556032       0.06429705      -2.03694743
C       -2.09932710       2.79149505      -2.29497471       0.37036344       4.48789306      -3.26878546
H       -1.90468158       3.55755282      -3.18859499      -0.06100806      -1.81972047       1.78523734
H       -3.79307165       3.97309009      -1.45831908      -0.56316636       0.98751474      -0.90941634
C       -2.80243955      -1.04096168       0.73341132      -2.57543034      -1.30371815      -1.67772855
C       -1.98210958      -1.56225318       1.85675480       2.51944876      -2.13098035       3.26567355
H       -2.47315908      -1.45144827      -0.30188718      -0.09394977       0.71321711       1.76196703
H       -3.96457108      -1.43462626       0.78595692       2.59657495       1.13386979       0.17012521
C       -1.13022641      -2.68305989       1.62730370       0.11768458       1.02063078      -0.54804900
C       -1.86772387      -1.05343942       3.23426646       2.65228191      -3.14247591      -2.06975729
C       -0.14267457      -3.16095647       2.54799989      -2.19280835      -0.53055042      -2.70489014
H       -1.19166171      -3.08416688       0.60251888       0.29845157      -0.18423640       0.46275618
C       -0.12336678      -2.60572576       3.77956552       1.64886077      -1.48153555       3.45072392
H        0.41214287      -4.04708334       2.21732672       0.15281023       0.40331528       0.47894477
C       -0.92961580      -1.55844795       4.18388470      -1.45073184      -0.22236572      -3.61601136
H        0.47759905      -3.10347658       4.61942155      -0.35564605       0.83918334      -1.44801451
H       -0.73594901      -1.15932700       5.13269881      -0.34826623       0.86718375       1.36813880
H       -2.30210923      -0.19107542       3.47303940      -2.45051013       3.63396868       0.96451200
27
Lattice="50.0 0.0 0.0 0.0 50.0 0.0 0.0 0.0 50.0" Properties=species:S:1:pos:R:3:forces:R:3 energy=-17660.123896459965 dihedrals="164.88 79.08 49.86" pbc="F F F"
C       -1.11105167      -0.02386704       2.10038651       1.54864445       2.05170639      -0.19579895
C       -0.48548724       0.41965407       0.93357198       0.64882447       0.62131565       0.72326535
C       -0.79605807       0.61314763       3.30752041       1.17495985       0.89300735       0.30893009
H       -1.83730771      -0.75538203       2.14002163      -1.58307750      -1.71487747      -0.35685214
C        0.43664292       1.49628876       1.05048710      -0.31295210       0.29628246      -0.61000390
O       -0.59938335       0.00031335      -0.34125529      -0.78364356      -1.70625233      -1.49147657
N        1.13833881       1.99655810      -0.04363276       1.25906567       1.75070109       0.45404782
N        0.64686291       2.07938187       2.20550735       2.31945109       1.35452657      -0.74703277
H        0.84948538       1.81092763      -0.99545149      -0.12811126      -0.05635626       0.38184160
H        1.73987770       2.88650276       0.11465336      -1.81783091      -2.41416355      -0.20051792
C        0.17821309       1.63332902       3.33106632      -1.74415189      -1.01580553       1.28384133
H        0.54689938       2.12945974       4.27103534      -0.63767461      -0.50239202      -0.88377283
H       -1.29846585       0.38226853       4.22297036      -0.29747519      -0.55555147       0.46565168
C       -1.22560207      -1.27661861      -0.58344386      -0.60667831      -0.17016525       0.84076125
C       -2.76965415      -1.26489142      -0.52561270       1.99237545      -2.79099816       1.62230368
H       -0.89065443      -2.01259860       0.19965834      -0.04322270       0.68233080      -0.59907095
H       -0.93091418      -1.70735870      -1.55845130       0.36435765       0.78171079       0.21142363
C       -3.30159780      -2.35182102       0.22147191      -0.66559919       0.91509481      -0.31145550
C       -3.61141334      -0.40811213      -1.16277242       1.23456155       1.29374312      -0.95929468
C       -4.65027218      -2.47850895       0.37729315      -2.02385236      -0.50333599      -0.00817911
H       -2.84031648      -3.11546413       0.78844644       1.91467227      -0.41181203       0.26357072
C       -5.51532170      -1.58849156      -0.23202823      -0.72306665       0.62910489       0.88512376
H       -5.16821858      -3.25594980       0.97443658       0.95722379       0.19377866      -0.17386152
C       -4.95959719      -0.54810073      -0.98214345      -3.41270423       1.13729196      -0.44723838
H       -6.58258581      -1.67403446       0.12955474       1.01711385       0.48978896      -1.19992036
H       -5.68595141       0.22044410      -1.39250812       1.07479029      -0.90609419       0.27015248
H       -3.13343295       0.38301322      -1.78194426      -0.72599992      -0.34257924       0.47356217
27
Lattice="50.0 0.0 0.0 0.0 50.0 0.0 0.0 0.0 50.0" Properties=species:S:1:pos:R:3:forces:R:3 energy=-17660.437485638755 dihedrals="268.95 182.47 227.77" pbc="F F F"
C        1.61367740       0.16639968      -1.45116288      -0.61233204       1.57107981       0.36900172
C        0.54660125       1.03357680      -1.21221914       0.88824704      -0.64059115      -0.32255195
C        2.88391805       0.70425608      -1.64565957      -1.00335196       1.84430265      -0.05170511
H        1.40358573      -0.86050463      -1.38517016      -0.10539213      -1.55487266      -0.32008062
C        0.80288751       2.41262200      -1.10082380      -1.25068133      -0.82752397      -0.16306837
O       -0.74366627       0.55865603      -1.12585341       0.50205721       0.24220637       0.09247306
N       -0.26758726       3.18866599      -0.65456773       0.77800002       1.70700083       0.35529667
N        1.96303925       2.98866421      -1.34241765       1.38653740      -1.48633570       0.24163856
H       -0.96814213       3.32503828      -1.36862548      -0.38099225      -0.17704989      -0.09943649
H        0.18055965       4.10112789      -0.46887774      -0.73631217      -0.28487134      -0.07489719
C        2.97505702       2.10798298      -1.58745468       0.11712656      -0.04380778      -0.22315948
H        3.94737854       2.55749405      -1.76523292       0.04727184       0.17795568      -0.05152557
H        3.72160905       0.12799908      -1.96662577       0.62315808      -0.46249236       0.14377142
C       -1.13986495       0.21065226       0.18741857       1.52290752       0.56274240       1.67764771
C       -2.48943290      -0.33270591       0.17232602      -0.14234688      -0.57617709      -0.37797593
H       -1.02982956       1.05379801       0.89798604      -0.15781809       0.08243263      -0.49033442
H       -0.49090359      -0.57818014       0.62448205       0.24130405       0.16997741      -0.49101898
C       -2.70841144      -1.32261943      -0.76450003       0.73355535      -0.50693392      -1.19909864
C       -3.48609748       0.05247654       1.02725550       0.42676636       0.78617099      -0.41842116
C       -3.95954931      -1.84694337      -0.91730915      -2.75116542      -0.09015887       0.35495791
H       -1.88012289      -1.57512045      -1.44525576      -0.41848264      -0.05971215       0.29789336
C       -5.00057847      -1.38494689      -0.06707313       0.77967564       0.03386251      -0.31997295
H       -4.34411585      -2.53468784      -1.69566777       1.04453866       0.23192930       0.27170544
C       -4.74836960      -0.43030857       0.92112095      -1.31470419      -1.58801250      -0.58475648
H       -5.98830922      -1.73875593      -0.29246507      -0.57904070      -0.19928975       0.25473402
H       -5.49241442      -0.06930453       1.61827336      -0.40769844      -0.00574880      -0.14651014
H       -3.39276343       0.91210612       1.61969711       0.76917251       1.09391736       1.27539361
27
Lattice="50.0 0.0 0.0 0.0 50.0 0.0 0.0 0.0 50.0" Properties=species:S:1:pos:R:3:forces:R:3 energy=-17656.700241305705 dihedrals="84.93 306.06 263.44" pbc="F F F"
C       -1.39371184       3.42912593      -0.16553003      -2.03981529      -2.86400888      -2.67404647
C       -1.81550745       2.19705961      -0.93144044       1.69116690       3.87401923       2.45535529
C       -0.70485231       3.25750395       1.01581134       0.35600503      -0.60534874       2.38466232
H       -1.68648576       4.44238863      -0.52851489       0.13779713      -0.98038792       0.29169961
C       -1.26465652       0.98691671      -0.56705230       3.01518168       1.73141714       4.17946034
O       -2.53981800       2.16308378      -2.03035888      -3.01799927       1.12263504      -2.88985664
N       -1.15635920      -0.03204095      -1.39088218       2.17970778      -4.85102697       2.11137965
N       -0.67070680       0.88775256       0.64961320       0.77004013       1.48222255       1.68656806
H       -1.31658706       0.01775683      -2.31473231      -1.11806902       0.88478523      -3.81356411
H       -0.66048868      -0.95236975      -1.16356521      -1.04664804       2.43229381       0.36514149
C       -0.40511605       2.00835041       1.55404554      -2.18531031      -5.40055761      -5.17659716
H       -0.10526232       1.41098403       2.43908191       0.24157766       2.14710829       0.18198635
H       -0.59030244       4.03321458       1.72537934       0.41307435       1.57036995       0.19389990
C       -4.02327877       1.73666597      -1.85289793       1.65755892       1.03317820      -2.29507249
C       -3.89742798       0.46725265      -1.15694093      -2.94042528      -2.04940034       0.45226946
H       -4.55320091       1.74393614      -2.90582914       1.53215809      -0.14507971       1.96475400
H       -4.50160277       2.46860807      -1.22536075      -0.16275821       0.63919032       0.17567690
C       -3.98022369       0.57250105       0.27591070      -0.12012233      -0.05541507      -0.38069727
C       -3.93471974      -0.82033829      -1.89699120       1.60575963       3.20860620       2.19536070
C       -3.98296391      -0.64683075       0.94614426       3.60614733      -1.55734848       3.18129465
H       -3.95311714       1.55250347       0.92680612      -0.36402402      -1.84306905      -1.92123961
C       -3.47258717      -1.81615924       0.29896704      -2.90628682       3.04841681      -1.22944719
H       -3.84018944      -0.71280211       2.14403970      -0.96726010       0.51392825      -2.85426371
C       -3.54986468      -1.88415735      -1.10752369      -0.79324824      -2.55510243       0.21762104
H       -3.43226765      -2.70674511       0.83015884       0.56103191      -1.64640093       1.11448368
H       -3.52672643      -2.95313150      -1.45504350       0.39660751       1.20944438      -0.37829318
H       -3.84698555      -0.75867411      -2.99253444      -0.50184713      -0.34446928       0.46146439
27
Lattice="50.0 0.0 0.0 0.0 50.0 0.0 0.0 0.0 50.0" Properties=species:S:1:pos:R:3:forces:R:3 energy=-17659.37496166138 dihedrals="185.08 151.67 243.63" pbc="F F F"
C        0.18537776      -0.59181915       2.34803496       0.89346287       1.69986614       1.52695346
C       -0.24453230       0.23601631       1.30752023      -0.85379921      -3.71001028       1.00973753
C        1.10502249       0.12982742       3.25575419      -0.50040190      -2.20059825       0.76203928
H       -0.26762146      -1.62668539       2.58793792       1.13347316       1.96289106      -0.46146413
C        0.29968654       1.46279379       1.08424368       0.92247407       4.29725564      -1.73638132
O       -1.20802114      -0.10648621       0.41233452      -1.53323393      -2.93662207       0.77292643
N       -0.15339051       2.18288711      -0.04358592      -1.04451777      -1.99066812      -0.39355998
N        1.15556720       2.11510052       1.87716918      -0.47560907      -1.40052239       0.55013462
H       -0.75045107       1.63394647      -0.75206810       1.73458336       1.60825303       1.58470785
H        0.39272805       2.99944244      -0.29797446      -0.26278634      -0.39585459      -0.09248260
C        1.50148151       1.43392616       3.00588622       0.32714164       1.46091352       0.31260729
H        2.05595517       2.11914468       3.75615972      -0.63489018      -1.74106541      -1.14286839
H        1.46474682      -0.39782179       4.20069413      -0.54447138       0.80002612      -1.35611878
C       -1.92055295      -1.41850138       0.70487568       0.40676743       0.20329707      -1.46359213
C       -3.31215287      -1.28479089       0.11552071       2.72807253      -0.79550890       2.91949401
H       -2.15998948      -1.72094129       1.72065307       0.82357597       1.06555970       0.87037814
H       -1.31699339      -2.31563419       0.34735305      -0.45967146       1.36156504      -0.26777506
C       -3.49502855      -1.10333336      -1.17893583      -2.75600696       1.19326915      -4.96738864
C       -4.36229442      -1.32347525       0.99743468      -1.44950150      -1.07492607       1.61078136
C       -4.81336063      -0.93162343      -1.75685464       0.44370555       0.37291355      -0.09938580
H       -2.68040787      -0.97987390      -1.87411976       0.50771144      -0.14219333       0.00428799
C       -5.92383059      -1.00907898      -0.89804645       2.54465586      -0.26478576      -0.65807270
H       -4.93526141      -0.62622869      -2.84224056       0.28060545      -0.67303486       1.34032022
C       -5.61924154      -1.23711606       0.43463067      -2.06355719       1.08612024       1.36664565
H       -6.94875573      -0.90238737      -1.17800506      -0.50962660       0.18630733      -0.47587178
H       -6.50162313      -1.06828706       1.05972363       0.27019813      -0.72341208       0.47810294
H       -4.27083108      -1.56727426       2.12416483       0.07164601       0.75096450      -1.99415546
27
Lattice="50.0 0.0 0.0 0.0 50.0 0.0 0.0 0.0 50.0" Properties=species:S:1:pos:R:3:forces:R:3 energy=-17660.48948514488 dihedrals="188.09 171.68 359.87" pbc="F F F"
C       -1.49208270       2.35481897       1.75823349       0.22562612       1.47416625       0.62107668
C       -1.90038100       1.54473280       0.69368068       1.15635241       0.85571113       0.56297980
C       -1.83475327       3.75652114       1.79512658      -0.24083050      -2.18627154      -0.79240362
H       -0.82502532       2.03450001       2.58087686      -0.66486441      -0.41872954      -0.52149660
C       -2.47010294       2.14692606      -0.42676379      -2.12503751       0.81240947      -0.66206194
O       -1.63999269       0.24230212       0.52768162       0.13457719      -1.93868317      -0.00441533
N       -2.88759787       1.39305114      -1.55864147       0.42249725       1.23208337       0.58928206
N       -2.88019435       3.43508885      -0.35653873       0.53177459      -1.26446988      -1.00004916
H       -2.40668757       0.51976247      -1.80646269      -0.18751002       0.94116657       0.30062665
H       -3.15674998       2.03244300      -2.32329772       0.32284828      -0.83938650       0.52423533
C       -2.57620881       4.18435792       0.69746137      -0.04774117       1.87101353       0.34406018
H       -2.92155107       5.26138586       0.60587326       0.34860916      -1.30965034       0.28789007
H       -1.57347621       4.35868839       2.66694166      -0.04652660       0.03296980      -0.39208722
C       -1.22168542      -0.50361884       1.66772943       2.27206174       1.27886023      -0.87467884
C       -1.14321907      -1.96657724       1.44052524      -1.07816635      -0.12084110      -2.75016919
H       -1.87008678      -0.26461157       2.44999036      -1.25684927       0.33008959       1.73519683
H       -0.21397293      -0.10648274       1.92169139      -0.27406787      -0.26870874       0.25253689
C       -0.84003347      -2.88426019       2.39853272       0.22168609       0.88524607       1.88699420
C       -1.47801441      -2.45162701       0.17677349      -0.40303649      -0.74700363      -0.32452981
C       -0.89314911      -4.25158424       2.21633703       0.53670845       0.26397832       0.73369804
H       -0.60601323      -2.40029722       3.34178537       0.29465539      -0.62903960       0.57320361
C       -1.29286839      -4.73501970       0.99698956       0.60821334      -1.73637497      -0.21765807
H       -0.54275168      -4.89455428       3.01438718      -0.19455083      -0.19860647       0.09970521
C       -1.57477290      -3.83956807      -0.00722267      -0.56616884      -0.21589242      -2.71451652